<VTKFile type="PolyData">
<PolyData>
<Piece NumberOfPoints="6456" NumberOfVerts="6456" NumberOfLines="0" NumberOfStrips="0" NumberOfPolys="0">
<PointData>
<DataArray type="Float64" Name="Pressure" format="ascii">
 -0.000000 0.000000 0.000000 0.000000 0.000000 0.000000 -0.000000 0.000000 0.000000 -0.000000 0.000000 0.000000 -0.000000 0.000000 0.000000 -0.000000 0.000000 0.000000 -0.000000 0.000000 0.000000 -0.000000 0.000000 0.000000 -0.000000 0.000000 0.000000 -0.000000 -0.000000 0.000000 -0.000000 -0.000000 -0.000000 -0.000000 -0.000000 -0.000000 -0.000000 -0.000000 -0.000000 -0.000000 -0.000000 -0.000000 -0.000000 0.000000 0.000000 -0.000000 -0.000000 -0.000000 -0.000000 0.000000 0.000000 0.000000 0.000000 0.000000 0.000000 0.000000 0.000000 -0.000000 0.000000 0.000000 -0.000000 0.000000 0.000000 -0.000000 -0.000000 -0.000000 -0.000000 0.000000 0.000000 -0.000000 -0.000000 -0.000000 -0.000000 0.000000 -0.000000 -0.000000 -0.000000 -0.000000 -0.000000 -0.000000 -0.000000 -0.000000 0.000000 0.000000 -0.000000 -0.000000 -0.000000 -0.000000 -0.000000 -0.000000 -0.000000 0.000000 0.000000 -0.000000 -0.000000 -0.000000 -0.000000 0.000000 -0.000000 -0.000000 -0.000000 -0.000000 -0.000000 -0.000000 -0.000000 -0.000000 0.000000 0.000000 -0.000000 -0.000000 -0.000000 0.000000 0.000000 0.000000 -0.000000 -0.000000 -0.000000 -0.000000 -0.000000 -0.000000 -0.000000 -0.000000 -0.000000 -0.000000 -0.000000 -0.000000 -0.000000 -0.000000 -0.000000 -0.000000 -0.000000 -0.000000 -0.000000 -0.000000 -0.000000 -0.000000 -0.000000 -0.000000 -0.000000 -0.000000 -0.000000 -0.000000 -0.000000 -0.000000 -0.000000 -0.000000 -0.000000 -0.000000 -0.000000 -0.000000 -0.000000 -0.000000 -0.000000 -0.000000 -0.000000 -0.000000 -0.000000 -0.000000 -0.000000 -0.000000 -0.000000 -0.000000 -0.000000 -0.000000 -0.000000 -0.000000 -0.000000 -0.000000 -0.000000 -0.000000 -0.000000 -0.000000 -0.000000 -0.000000 -0.000000 -0.000000 -0.000000 -0.000000 -0.000000 -0.000000 -0.000000 -0.000000 -0.000000 -0.000000 -0.000000 -0.000000 -0.000000 -0.000000 -0.000000 -0.000000 -0.000000 -0.000000 -0.000000 -0.000000 -0.000000 -0.000000 -0.000000 -0.000000 -0.000000 -0.000000 -0.000000 -0.000000 -0.000000 -0.000000 -0.000000 -0.000000 -0.000000 -0.000000 -0.000000 -0.000000 -0.000000 -0.000000 -0.000000 -0.000000 -0.000000 -0.000000 -0.000000 -0.000000 -0.000000 -0.000000 -0.000000 -0.000000 -0.000000 -0.000000 -0.000000 -0.000000 -0.000000 -0.000000 -0.000000 -0.000000 -0.000000 -0.000000 -0.000000 -0.000000 -0.000000 -0.000000 -0.000000 -0.000000 -0.000000 -0.000000 -0.000000 -0.000000 -0.000000 -0.000000 -0.000000 -0.000000 -0.000000 -0.000000 -0.000000 -0.000000 -0.000000 -0.000000 -0.000000 -0.000000 -0.000000 -0.000000 -0.000000 -0.000000 -0.000000 -0.000000 -0.000000 -0.000000 -0.000000 -0.000000 -0.000000 -0.000000 -0.000000 -0.000000 -0.000000 -0.000000 -0.000000 -0.000000 -0.000000 -0.000000 -0.000000 -0.000000 -0.000000 -0.000000 -0.000000 -0.000000 -0.000000 -0.000000 -0.000000 -0.000000 -0.000000 -0.000000 -0.000000 -0.000000 -0.000000 -0.000000 -0.000000 -0.000000 -0.000000 -0.000000 -0.000000 -0.000000 -0.000000 -0.000000 -0.000000 -0.000000 -0.000000 -0.000000 -0.000000 -0.000000 -0.000000 -0.000000 -0.000000 -0.000000 -0.000000 -0.000000 -0.000000 -0.000000 -0.000000 -0.000000 -0.000000 -0.000000 -0.000000 -0.000000 -0.000000 -0.000000 -0.000000 -0.000000 -0.000000 -0.000000 -0.000000 -0.000000 -0.000000 -0.000000 -0.000000 -0.000000 -0.000000 -0.000000 -0.000000 -0.000000 -0.000000 -0.000000 -0.000000 -0.000000 -0.000000 -0.000000 -0.000000 -0.000000 -0.000000 -0.000000 -0.000000 -0.000000 -0.000000 -0.000000 -0.000000 -0.000000 -0.000000 -0.000000 -0.000000 -0.000000 -0.000000 -0.000000 -0.000000 -0.000000 -0.000000 -0.000000 -0.000000 -0.000000 -0.000000 -0.000000 -0.000000 -0.000000 -0.000000 -0.000000 -0.000000 -0.000000 -0.000000 -0.000000 -0.000000 -0.000000 -0.000000 -0.000000 -0.000000 -0.000000 -0.000000 -0.000000 -0.000000 -0.000000 -0.000000 -0.000000 -0.000000 -0.000000 -0.000000 -0.000000 -0.000000 -0.000000 -0.000000 -0.000000 -0.000000 -0.000000 -0.000000 -0.000000 -0.000000 -0.000000 -0.000000 -0.000000 -0.000000 -0.000000 -0.000000 -0.000000 -0.000000 -0.000000 -0.000000 -0.000000 -0.000000 -0.000000 -0.000000 -0.000000 -0.000000 -0.000000 -0.000000 -0.000000 -0.000000 -0.000000 -0.000000 -0.000000 -0.000000 -0.000000 -0.000000 -0.000000 -0.000000 -0.000000 -0.000000 -0.000000 -0.000000 -0.000000 -0.000000 -0.000000 -0.000000 -0.000000 -0.000000 -0.000000 -0.000000 -0.000000 -0.000000 -0.000000 -0.000000 -0.000000 -0.000000 -0.000000 -0.000000 -0.000000 -0.000000 -0.000000 -0.000000 -0.000000 -0.000000 -0.000000 -0.000000 -0.000000 -0.000000 -0.000000 -0.000000 -0.000000 -0.000000 -0.000000 -0.000000 -0.000000 -0.000000 -0.000000 -0.000000 -0.000000 -0.000000 -0.000000 -0.000000 -0.000000 -0.000000 -0.000000 -0.000000 -0.000000 -0.000000 -0.000000 -0.000000 -0.000000 -0.000000 -0.000000 -0.000000 -0.000000 -0.000000 -0.000000 0.000000 0.000000 0.000000 0.000000 0.000000 0.000000 0.000000 0.000000 -0.000000 0.000000 0.000000 0.000000 0.000000 0.000000 0.000000 0.000000 0.000000 -0.000000 0.000000 0.000000 0.000000 0.000000 0.000000 0.000000 0.000000 0.000000 0.000000 0.000000 0.000000 0.000000 0.000000 0.000000 -0.000000 0.000000 0.000000 0.000000 0.000000 0.000000 0.000000 0.000000 0.000000 0.000000 0.000000 0.000000 0.000000 0.000000 0.000000 -0.000000 0.000000 0.000000 0.000000 0.000000 0.000000 0.000000 0.000000 0.000000 -0.000000 0.000000 0.000000 0.000000 0.000000 0.000000 0.000000 0.000000 0.000000 0.000000 0.000000 0.000000 0.000000 0.000000 0.000000 -0.000000 0.000000 0.000000 0.000000 0.000000 0.000000 0.000000 0.000000 0.000000 0.000000 0.000000 0.000000 0.000000 0.000000 0.000000 -0.000000 0.000000 0.000000 0.000000 0.000000 0.000000 0.000000 0.000000 0.000000 0.000000 0.000000 0.000000 0.000000 0.000000 0.000000 -0.000000 0.000000 0.000000 0.000000 0.000000 0.000000 0.000000 0.000000 0.000000 0.000000 0.000000 0.000000 0.000000 0.000000 0.000000 0.000000 0.000000 0.000000 0.000000 0.000000 0.000000 5337.764036 1987.134692 700.797073 5829.060698 2397.924918 897.956945 6086.559168 2546.032139 983.753898 6286.947869 2613.696212 1013.943038 6413.967927 2648.114046 1024.333920 6486.919830 2664.678181 1028.076370 6523.498191 2672.021527 1029.438420 6540.191125 2675.044842 1029.915716 6547.310363 2676.208081 1030.073937 6550.137023 2676.628177 1030.123506 6551.185327 2676.771270 1030.138211 6551.551413 2676.817416 1030.142354 6551.672229 2676.831547 1030.143465 6551.709998 2676.835668 1030.143750 6551.721221 2676.836816 1030.143819 6551.724400 2676.837122 1030.143836 6551.725260 2676.837200 1030.143839 6551.725483 2676.837219 1030.143840 6551.725538 2676.837223 1030.143840 6551.725551 2676.837224 1030.143840 6551.725554 2676.837225 1030.143840 6551.725555 2676.837225 1030.143840 6551.725555 2676.837225 1030.143840 6551.725555 2676.837225 1030.143840 6551.725555 2676.837225 1030.143840 6551.725555 2676.837225 1030.143840 6551.725555 2676.837225 1030.143840 6551.725555 2676.837225 1030.143840 6551.725555 2676.837225 1030.143840 6551.725555 2676.837225 1030.143840 6551.725555 2676.837225 1030.143840 6551.725555 2676.837225 1030.143840 6551.725555 2676.837225 1030.143840 6551.725555 2676.837225 1030.143840 6551.725555 2676.837225 1030.143840 6551.725555 2676.837225 1030.143840 6551.725555 2676.837225 1030.143840 6551.725555 2676.837225 1030.143840 6551.725555 2676.837225 1030.143840 6551.725555 2676.837225 1030.143840 6551.725555 2676.837225 1030.143840 6551.725555 2676.837225 1030.143840 6551.725555 2676.837225 1030.143840 6551.725555 2676.837225 1030.143840 6551.725555 2676.837225 1030.143840 6551.725555 2676.837225 1030.143840 6551.725555 2676.837225 1030.143840 6551.725555 2676.837225 1030.143840 6551.725555 2676.837225 1030.143840 6551.725555 2676.837225 1030.143840 6551.725555 2676.837225 1030.143840 6551.725555 2676.837225 1030.143840 6551.725555 2676.837225 1030.143840 6551.725555 2676.837225 1030.143840 6551.725555 2676.837225 1030.143840 6551.725555 2676.837225 1030.143840 6551.725555 2676.837225 1030.143840 6551.725555 2676.837225 1030.143840 6551.725555 2676.837225 1030.143840 6551.725555 2676.837225 1030.143840 6551.725555 2676.837225 1030.143840 6551.725555 2676.837225 1030.143840 6551.725555 2676.837225 1030.143840 6551.725555 2676.837225 1030.143840 6551.725555 2676.837225 1030.143840 6551.725555 2676.837225 1030.143840 6551.725555 2676.837225 1030.143840 6551.725555 2676.837225 1030.143840 6551.725555 2676.837225 1030.143840 6551.725555 2676.837225 1030.143840 6551.725555 2676.837225 1030.143840 6551.725555 2676.837225 1030.143840 6551.725555 2676.837225 1030.143840 6551.725555 2676.837225 1030.143840 6551.725555 2676.837225 1030.143840 6551.725555 2676.837225 1030.143840 6551.725555 2676.837225 1030.143840 6551.725555 2676.837225 1030.143840 6551.725555 2676.837225 1030.143840 6551.725555 2676.837225 1030.143840 6551.725555 2676.837225 1030.143840 6551.725555 2676.837225 1030.143840 6551.725555 2676.837225 1030.143840 6551.725555 2676.837225 1030.143840 6551.725555 2676.837225 1030.143840 6551.725555 2676.837225 1030.143840 6551.725555 2676.837225 1030.143840 6551.725555 2676.837225 1030.143840 6551.725555 2676.837225 1030.143840 6551.725555 2676.837225 1030.143840 6551.725555 2676.837225 1030.143840 6551.725555 2676.837225 1030.143840 6551.725555 2676.837225 1030.143840 6551.725555 2676.837225 1030.143840 6551.725555 2676.837225 1030.143840 6551.725555 2676.837225 1030.143840 6551.725555 2676.837225 1030.143840 6551.725555 2676.837225 1030.143840 6551.725555 2676.837225 1030.143840 6551.725555 2676.837225 1030.143840 6551.725555 2676.837225 1030.143840 6551.725555 2676.837225 1030.143840 6551.725555 2676.837225 1030.143840 6551.725555 2676.837225 1030.143840 6551.725555 2676.837225 1030.143840 6551.725555 2676.837225 1030.143840 6551.725555 2676.837225 1030.143840 6551.725555 2676.837225 1030.143840 6551.725555 2676.837225 1030.143840 6551.725555 2676.837225 1030.143840 6551.725555 2676.837225 1030.143840 6551.725555 2676.837225 1030.143840 6551.725555 2676.837225 1030.143840 6551.725555 2676.837225 1030.143840 6551.725555 2676.837225 1030.143840 6551.725555 2676.837225 1030.143840 6551.725555 2676.837225 1030.143840 6551.725555 2676.837225 1030.143840 6551.725555 2676.837225 1030.143840 6551.725555 2676.837225 1030.143840 6551.725555 2676.837225 1030.143840 6551.725555 2676.837225 1030.143840 6551.725555 2676.837225 1030.143840 6551.725555 2676.837225 1030.143840 6551.725555 2676.837225 1030.143840 6551.725555 2676.837225 1030.143840 6551.725555 2676.837225 1030.143840 6551.725555 2676.837225 1030.143840 6551.725555 2676.837225 1030.143840 6551.725555 2676.837225 1030.143840 6551.725555 2676.837225 1030.143840 6551.725555 2676.837225 1030.143840 6551.725555 2676.837225 1030.143840 6551.725555 2676.837225 1030.143840 6551.725555 2676.837225 1030.143840 6551.725555 2676.837225 1030.143840 6551.725555 2676.837225 1030.143840 6551.725555 2676.837225 1030.143840 6551.725555 2676.837225 1030.143840 6551.725555 2676.837225 1030.143840 6551.725555 2676.837225 1030.143840 6551.725555 2676.837225 1030.143840 6551.725555 2676.837225 1030.143840 6551.725555 2676.837225 1030.143840 6551.725555 2676.837225 1030.143840 6551.725555 2676.837225 1030.143840 6551.725555 2676.837225 1030.143840 6551.725555 2676.837225 1030.143840 6551.725555 2676.837225 1030.143840 6551.725555 2676.837225 1030.143840 6551.725555 2676.837225 1030.143840 6551.725555 2676.837225 1030.143840 6551.725555 2676.837225 1030.143840 6551.725555 2676.837225 1030.143840 6551.725555 2676.837225 1030.143840 6551.725555 2676.837225 1030.143840 6551.725555 2676.837225 1030.143840 6551.725555 2676.837225 1030.143840 6551.725555 2676.837225 1030.143840 6551.725555 2676.837225 1030.143840 6551.725555 2676.837225 1030.143840 6551.725555 2676.837225 1030.143840 6551.725555 2676.837225 1030.143840 6551.725555 2676.837225 1030.143840 6551.725555 2676.837225 1030.143840 6551.725555 2676.837225 1030.143840 6551.725555 2676.837225 1030.143840 6551.725555 2676.837225 1030.143840 6551.725555 2676.837225 1030.143840 6551.725555 2676.837225 1030.143840 6551.725555 2676.837225 1030.143840 6551.725555 2676.837225 1030.143840 6551.725555 2676.837225 1030.143840 6551.725555 2676.837225 1030.143840 6551.725555 2676.837225 1030.143840 6551.725555 2676.837225 1030.143840 6551.725555 2676.837225 1030.143840 6551.725554 2676.837225 1030.143840 6551.725551 2676.837224 1030.143840 6551.725539 2676.837223 1030.143840 6551.725484 2676.837219 1030.143840 6551.725259 2676.837200 1030.143839 6551.724364 2676.837122 1030.143836 6551.720956 2676.836806 1030.143820 6551.708538 2676.835587 1030.143752 6551.665303 2676.831071 1030.143464 6551.521703 2676.815064 1030.142302 6551.068765 2676.760873 1030.137827 6549.716359 2676.586189 1030.121355 6545.885047 2676.051210 1030.063587 6535.676470 2674.498793 1029.871420 6510.482919 2670.252133 1029.264265 6451.450277 2659.337646 1027.428942 6321.968632 2633.033217 1022.019982 6085.288160 2573.116639 1006.031411 5622.716920 2437.590593 961.358305 4627.448598 2164.055998 859.571370 4568.227859 1787.705898 672.700583 3204.426720 1076.992027 402.742131 767.145226 369.846029 164.029550 152.038638 89.450375 46.336222 33.649597 21.859285 12.822595 3696.835526 2641.117464 1852.520172 1110.304578 634.407835 340.853614 173.810514 89.076978 49.239155 31.755099 24.423897 21.034250 18.445526 14.804787 8.976991 3.468787 16.374267 -96.766121 -935.308567 130.010500 893.226931 92.763917 33.505822 37.921940 31.598145 26.359453 23.350795 21.891297 21.250476 20.986496 20.885220 20.848929 20.836667 20.832718 20.831387 20.830508 20.828534 20.822264 20.802583 20.743897 20.578748 20.143700 19.070227 16.579803 11.333567 1.587591 -11.809971 -2.825420 -88.159059 -1177.676360 -1387.186720 -406.544496 -92.173946 -17.850015 -2.744537 -0.327464 -0.029507 -0.001960 -0.000093 -0.000003 -0.000000 -0.000000 -0.000000 -0.000000 -0.000000 -0.000000 -0.000000 -0.000000 -0.000000 -0.000000 -0.000000 -0.000000 -0.000000 -0.000000 -0.000000 -0.000000 -0.000000 -0.000000 -0.000000 -0.000000 -0.000000 -0.000000 -0.000000 -0.000000 -0.000000 -0.000000 -0.000000 -0.000000 -0.000000 -0.000000 -0.000000 -0.000000 -0.000000 -0.000000 -0.000000 -0.000000 -0.000000 -0.000000 -0.000000 -0.000000 -0.000000 0.000000 1026.985324 773.003893 483.993082 269.123978 138.399054 67.221792 31.643770 15.293639 8.332746 5.556528 4.482479 3.992228 3.542779 2.743464 1.174724 -1.937569 -14.559960 -72.022530 -175.647449 16.058559 170.787715 76.303004 22.359449 10.104896 6.739901 5.224534 4.517997 4.214717 4.094952 4.050831 4.035540 4.030535 4.028982 4.028521 4.028379 4.028293 4.028090 4.027397 4.025038 4.017387 3.993839 3.925263 3.737118 3.253785 2.104729 -0.358508 -5.288331 -21.473104 -97.659542 -316.078084 -370.610870 -179.488017 -53.233413 -11.364472 -1.839188 -0.223449 -0.020104 -0.001310 -0.000060 -0.000002 -0.000000 -0.000000 -0.000000 -0.000000 -0.000000 -0.000000 -0.000000 -0.000000 -0.000000 -0.000000 -0.000000 -0.000000 -0.000000 -0.000000 -0.000000 -0.000000 -0.000000 -0.000000 -0.000000 -0.000000 -0.000000 -0.000000 -0.000000 -0.000000 -0.000000 -0.000000 -0.000000 -0.000000 -0.000000 -0.000000 -0.000000 -0.000000 -0.000000 -0.000000 -0.000000 -0.000000 -0.000000 -0.000000 -0.000000 -0.000000 -0.000000 0.000000 266.242009 204.375584 120.409618 60.504663 27.505285 11.849581 5.089099 2.390362 1.388801 1.039278 0.919079 0.862945 0.790663 0.608030 0.000524 -2.528462 -12.142787 -34.878216 -45.981440 2.002379 47.069486 35.300002 13.564269 4.247859 1.744589 1.140800 0.967253 0.908775 0.888988 0.882670 0.880769 0.880228 0.880081 0.880043 0.880033 0.880027 0.880013 0.879959 0.879750 0.878972 0.876226 0.867033 0.837965 0.751438 0.500009 -0.313425 -3.552997 -16.512099 -54.657053 -110.646914 -119.692959 -70.508498 -25.544698 -6.290406 -1.103120 -0.140189 -0.012853 -0.000837 -0.000037 -0.000001 -0.000000 0.000000 0.000000 0.000000 0.000000 0.000000 0.000000 0.000000 0.000000 0.000000 0.000000 0.000000 0.000000 0.000000 0.000000 0.000000 0.000000 0.000000 0.000000 0.000000 0.000000 0.000000 0.000000 0.000000 0.000000 0.000000 0.000000 0.000000 0.000000 0.000000 0.000000 0.000000 0.000000 0.000000 0.000000 0.000000 0.000000 0.000000 0.000000 0.000000 0.000000 0.000000 923.463676 621.543486 350.699477 181.336361 89.697934 42.410303 19.360492 8.762535 4.169668 2.302114 1.588330 1.330527 1.240793 1.200936 1.110605 0.572926 -2.402373 -15.702344 -87.538870 -78.940942 -16.392306 -3.586482 -0.621896 -0.085236 -0.008788 -0.000662 -0.000035 -0.000001 -0.000000 -0.000000 0.000000 0.000000 0.000000 0.000000 0.000000 0.000000 0.000000 -0.000000 -0.000000 -0.000000 -0.000000 -0.000000 -0.000000 -0.000000 -0.000000 -0.000000 -0.000000 -0.000000 -0.000000 -0.000000 -0.000000 -0.000000 -0.000000 -0.000000 -0.000000 -0.000000 -0.000000 -0.000000 -0.000000 -0.000000 -0.000000 -0.000000 -0.000000 -0.000000 -0.000000 -0.000000 -0.000000 -0.000000 -0.000000 -0.000000 -0.000000 -0.000000 -0.000000 -0.000000 -0.000000 -0.000000 -0.000000 -0.000000 -0.000000 -0.000000 -0.000000 -0.000000 -0.000000 -0.000000 -0.000000 -0.000000 -0.000000 -0.000000 -0.000000 -0.000000 -0.000000 -0.000000 -0.000000 -0.000000 -0.000000 -0.000000 -0.000000 -0.000000 0.000000 153.146135 108.347769 59.429857 28.244049 12.335144 5.117436 2.069427 0.863976 0.415863 0.258780 0.206866 0.190613 0.185276 0.178159 0.126650 -0.217879 -1.938080 -8.400413 -18.099678 -17.756911 -8.230745 -2.087373 -0.400628 -0.057032 -0.005953 -0.000444 -0.000023 -0.000001 -0.000000 -0.000000 0.000000 0.000000 0.000000 0.000000 0.000000 0.000000 0.000000 -0.000000 -0.000000 -0.000000 -0.000000 -0.000000 -0.000000 -0.000000 -0.000000 -0.000000 -0.000000 -0.000000 -0.000000 -0.000000 -0.000000 -0.000000 -0.000000 -0.000000 -0.000000 -0.000000 -0.000000 -0.000000 -0.000000 -0.000000 -0.000000 -0.000000 -0.000000 -0.000000 -0.000000 -0.000000 -0.000000 -0.000000 -0.000000 -0.000000 -0.000000 -0.000000 -0.000000 -0.000000 -0.000000 -0.000000 -0.000000 -0.000000 -0.000000 -0.000000 -0.000000 -0.000000 -0.000000 -0.000000 -0.000000 -0.000000 -0.000000 -0.000000 -0.000000 -0.000000 -0.000000 -0.000000 -0.000000 -0.000000 -0.000000 -0.000000 -0.000000 0.000000 0.000000 34.772448 24.533086 13.182294 5.886747 2.344652 0.876996 0.324624 0.130411 0.066048 0.045861 0.039851 0.038132 0.037393 0.033823 0.003268 -0.185763 -0.988182 -3.032107 -5.545605 -5.492173 -3.008625 -1.010401 -0.222031 -0.034248 -0.003716 -0.000280 -0.000014 -0.000000 -0.000000 0.000000 0.000000 0.000000 0.000000 0.000000 0.000000 0.000000 0.000000 -0.000000 -0.000000 -0.000000 -0.000000 -0.000000 -0.000000 -0.000000 -0.000000 -0.000000 -0.000000 -0.000000 -0.000000 -0.000000 -0.000000 -0.000000 -0.000000 -0.000000 -0.000000 -0.000000 -0.000000 -0.000000 -0.000000 -0.000000 -0.000000 -0.000000 -0.000000 -0.000000 -0.000000 -0.000000 -0.000000 -0.000000 -0.000000 -0.000000 -0.000000 -0.000000 -0.000000 -0.000000 -0.000000 -0.000000 -0.000000 -0.000000 -0.000000 -0.000000 -0.000000 -0.000000 -0.000000 -0.000000 -0.000000 -0.000000 -0.000000 -0.000000 -0.000000 -0.000000 -0.000000 -0.000000 -0.000000 -0.000000 -0.000000 0.000000 0.000000 0.000000 0.000000 3008.021427 1087.576913 407.566760 812.160422 374.600444 167.945765 229.539987 128.905256 66.532080 5470.070710 5055.583198 5471.602687 5802.528750 5984.163464 6098.562781 6160.348711 6189.983263 6203.281710 6208.806825 6210.934347 6211.702786 6211.964329 6212.048375 6212.073976 6212.081395 6212.083444 6212.083985 6212.084122 6212.084155 6212.084163 6212.084164 6212.084165 6212.084165 6212.084165 6212.084165 6212.084165 6212.084165 6212.084165 6212.084165 6212.084165 6212.084165 6212.084165 6212.084165 6212.084165 6212.084165 6212.084165 6212.084165 6212.084165 6212.084165 6212.084165 6212.084165 6212.084165 6212.084165 6212.084165 6212.084165 6212.084165 6212.084165 6212.084165 6212.084165 6212.084165 6212.084165 6212.084165 6212.084165 6212.084165 6212.084165 6212.084165 6212.084165 6212.084165 6212.084165 6212.084165 6212.084165 6212.084165 6212.084165 6212.084165 6212.084165 6212.084165 6212.084165 6212.084165 6212.084165 6212.084165 6212.084165 6212.084165 6212.084165 6212.084165 6212.084165 6212.084165 6212.084165 6212.084165 6212.084165 6212.084165 6212.084165 6212.084165 6212.084165 6212.084165 6212.084165 6212.084165 6212.084165 6212.084165 6212.084165 6212.084165 6212.084165 6212.084165 6212.084165 6212.084165 6212.084165 6212.084165 6212.084165 6212.084165 6212.084165 6212.084165 6212.084165 6212.084165 6212.084165 6212.084165 6212.084165 6212.084165 6212.084165 6212.084165 6212.084165 6212.084165 6212.084165 6212.084165 6212.084165 6212.084165 6212.084165 6212.084165 6212.084165 6212.084165 6212.084165 6212.084165 6212.084165 6212.084165 6212.084165 6212.084165 6212.084165 6212.084165 6212.084165 6212.084165 6212.084165 6212.084165 6212.084165 6212.084165 6212.084165 6212.084165 6212.084165 6212.084165 6212.084165 6212.084165 6212.084165 6212.084165 6212.084165 6212.084165 6212.084165 6212.084165 6212.084165 6212.084165 6212.084165 6212.084165 6212.084165 6212.084165 6212.084165 6212.084165 6212.084165 6212.084165 6212.084165 6212.084165 6212.084165 6212.084165 6212.084165 6212.084165 6212.084165 6212.084165 6212.084165 6212.084165 6212.084165 6212.084165 6212.084165 6212.084165 6212.084165 6212.084165 6212.084165 6212.084165 6212.084165 6212.084165 6212.084165 6212.084165 6212.084163 6212.084156 6212.084123 6212.083988 6212.083435 6212.081279 6212.073227 6212.044506 6211.946795 6211.630297 6210.660256 6207.854829 6200.158596 6180.439632 6134.281814 6029.948864 5808.488838 5455.467646 4768.061420 3235.228874 3145.278807 3346.896798 2850.068384 3357.832193 3613.700907 3752.454600 3854.989663 3913.014598 3941.844182 3955.351577 3961.164553 3963.468570 3964.323288 3964.621297 3964.719120 3964.749496 3964.758454 3964.760968 3964.761642 3964.761814 3964.761857 3964.761867 3964.761869 3964.761869 3964.761869 3964.761870 3964.761870 3964.761870 3964.761870 3964.761870 3964.761870 3964.761870 3964.761870 3964.761870 3964.761870 3964.761870 3964.761870 3964.761870 3964.761870 3964.761870 3964.761870 3964.761870 3964.761870 3964.761870 3964.761870 3964.761870 3964.761870 3964.761870 3964.761870 3964.761870 3964.761870 3964.761870 3964.761870 3964.761870 3964.761870 3964.761870 3964.761870 3964.761870 3964.761870 3964.761870 3964.761870 3964.761870 3964.761870 3964.761870 3964.761870 3964.761870 3964.761870 3964.761870 3964.761870 3964.761870 3964.761870 3964.761870 3964.761870 3964.761870 3964.761870 3964.761870 3964.761870 3964.761870 3964.761870 3964.761870 3964.761870 3964.761870 3964.761870 3964.761870 3964.761870 3964.761870 3964.761870 3964.761870 3964.761870 3964.761870 3964.761870 3964.761870 3964.761870 3964.761870 3964.761870 3964.761870 3964.761870 3964.761870 3964.761870 3964.761870 3964.761870 3964.761870 3964.761870 3964.761870 3964.761870 3964.761870 3964.761870 3964.761870 3964.761870 3964.761870 3964.761870 3964.761870 3964.761870 3964.761870 3964.761870 3964.761870 3964.761870 3964.761870 3964.761870 3964.761870 3964.761870 3964.761870 3964.761870 3964.761870 3964.761870 3964.761870 3964.761870 3964.761870 3964.761870 3964.761870 3964.761870 3964.761870 3964.761870 3964.761870 3964.761870 3964.761870 3964.761870 3964.761870 3964.761870 3964.761870 3964.761870 3964.761870 3964.761870 3964.761870 3964.761870 3964.761870 3964.761870 3964.761870 3964.761870 3964.761870 3964.761870 3964.761870 3964.761870 3964.761870 3964.761870 3964.761870 3964.761870 3964.761870 3964.761870 3964.761870 3964.761870 3964.761870 3964.761870 3964.761870 3964.761870 3964.761870 3964.761870 3964.761870 3964.761870 3964.761870 3964.761870 3964.761870 3964.761870 3964.761870 3964.761870 3964.761869 3964.761869 3964.761869 3964.761867 3964.761857 3964.761816 3964.761644 3964.760953 3964.758296 3964.748523 3964.714249 3964.599802 3964.236464 3963.147866 3960.081975 3951.897524 3931.532699 3885.937187 3787.332149 3581.277199 3284.991668 2785.083311 1465.940487 1671.170076 2835.637118 2872.592333 3255.077347 3443.264543 3574.174406 3668.696480 3720.744298 3747.044511 3759.602275 3765.074717 3767.274216 3768.102395 3768.395075 3768.492353 3768.522921 3768.532038 3768.534624 3768.535323 3768.535504 3768.535549 3768.535559 3768.535562 3768.535562 3768.535562 3768.535562 3768.535562 3768.535562 3768.535562 3768.535562 3768.535562 3768.535562 3768.535562 3768.535562 3768.535562 3768.535562 3768.535562 3768.535562 3768.535562 3768.535562 3768.535562 3768.535562 3768.535562 3768.535562 3768.535562 3768.535562 3768.535562 3768.535562 3768.535562 3768.535562 3768.535562 3768.535562 3768.535562 3768.535562 3768.535562 3768.535562 3768.535562 3768.535562 3768.535562 3768.535562 3768.535562 3768.535562 3768.535562 3768.535562 3768.535562 3768.535562 3768.535562 3768.535562 3768.535562 3768.535562 3768.535562 3768.535562 3768.535562 3768.535562 3768.535562 3768.535562 3768.535562 3768.535562 3768.535562 3768.535562 3768.535562 3768.535562 3768.535562 3768.535562 3768.535562 3768.535562 3768.535562 3768.535562 3768.535562 3768.535562 3768.535562 3768.535562 3768.535562 3768.535562 3768.535562 3768.535562 3768.535562 3768.535562 3768.535562 3768.535562 3768.535562 3768.535562 3768.535562 3768.535562 3768.535562 3768.535562 3768.535562 3768.535562 3768.535562 3768.535562 3768.535562 3768.535562 3768.535562 3768.535562 3768.535562 3768.535562 3768.535562 3768.535562 3768.535562 3768.535562 3768.535562 3768.535562 3768.535562 3768.535562 3768.535562 3768.535562 3768.535562 3768.535562 3768.535562 3768.535562 3768.535562 3768.535562 3768.535562 3768.535562 3768.535562 3768.535562 3768.535562 3768.535562 3768.535562 3768.535562 3768.535562 3768.535562 3768.535562 3768.535562 3768.535562 3768.535562 3768.535562 3768.535562 3768.535562 3768.535562 3768.535562 3768.535562 3768.535562 3768.535562 3768.535562 3768.535562 3768.535562 3768.535562 3768.535562 3768.535562 3768.535562 3768.535562 3768.535562 3768.535562 3768.535562 3768.535562 3768.535562 3768.535562 3768.535562 3768.535562 3768.535562 3768.535562 3768.535562 3768.535562 3768.535562 3768.535562 3768.535562 3768.535562 3768.535560 3768.535550 3768.535506 3768.535326 3768.534609 3768.531879 3768.521944 3768.487494 3768.373882 3768.017884 3766.965321 3764.046943 3756.394580 3737.590211 3696.037872 3609.326038 3429.667416 3152.482248 2740.099667 1721.755637 1449.530041 1817.199672 1850.681461 2073.612571 2224.524754 2335.405862 2407.872911 2447.698602 2468.432669 2478.453069 2482.857423 2484.651999 2485.337143 2485.582210 2485.664616 2485.690810 2485.698705 2485.700967 2485.701585 2485.701746 2485.701786 2485.701796 2485.701798 2485.701799 2485.701799 2485.701799 2485.701799 2485.701799 2485.701799 2485.701799 2485.701799 2485.701799 2485.701799 2485.701799 2485.701799 2485.701799 2485.701799 2485.701799 2485.701799 2485.701799 2485.701799 2485.701799 2485.701799 2485.701799 2485.701799 2485.701799 2485.701799 2485.701799 2485.701799 2485.701799 2485.701799 2485.701799 2485.701799 2485.701799 2485.701799 2485.701799 2485.701799 2485.701799 2485.701799 2485.701799 2485.701799 2485.701799 2485.701799 2485.701799 2485.701799 2485.701799 2485.701799 2485.701799 2485.701799 2485.701799 2485.701799 2485.701799 2485.701799 2485.701799 2485.701799 2485.701799 2485.701799 2485.701799 2485.701799 2485.701799 2485.701799 2485.701799 2485.701799 2485.701799 2485.701799 2485.701799 2485.701799 2485.701799 2485.701799 2485.701799 2485.701799 2485.701799 2485.701799 2485.701799 2485.701799 2485.701799 2485.701799 2485.701799 2485.701799 2485.701799 2485.701799 2485.701799 2485.701799 2485.701799 2485.701799 2485.701799 2485.701799 2485.701799 2485.701799 2485.701799 2485.701799 2485.701799 2485.701799 2485.701799 2485.701799 2485.701799 2485.701799 2485.701799 2485.701799 2485.701799 2485.701799 2485.701799 2485.701799 2485.701799 2485.701799 2485.701799 2485.701799 2485.701799 2485.701799 2485.701799 2485.701799 2485.701799 2485.701799 2485.701799 2485.701799 2485.701799 2485.701799 2485.701799 2485.701799 2485.701799 2485.701799 2485.701799 2485.701799 2485.701799 2485.701799 2485.701799 2485.701799 2485.701799 2485.701799 2485.701799 2485.701799 2485.701799 2485.701799 2485.701799 2485.701799 2485.701799 2485.701799 2485.701799 2485.701799 2485.701799 2485.701799 2485.701799 2485.701799 2485.701799 2485.701799 2485.701799 2485.701799 2485.701799 2485.701799 2485.701799 2485.701799 2485.701799 2485.701799 2485.701799 2485.701799 2485.701799 2485.701799 2485.701798 2485.701796 2485.701787 2485.701748 2485.701588 2485.700957 2485.698577 2485.690006 2485.660609 2485.564835 2485.268635 2484.403672 2482.038393 2475.951224 2461.199112 2428.741436 2363.121676 2232.504415 2016.250825 1694.251093 1066.857526 865.891803 1103.808513 1171.908264 1335.431655 1452.150540 1530.535931 1579.586068 1607.381514 1622.128847 1629.271864 1632.439227 1633.748395 1634.254644 1634.437819 1634.500151 1634.520199 1634.526310 1634.528079 1634.528567 1634.528695 1634.528728 1634.528735 1634.528737 1634.528738 1634.528738 1634.528738 1634.528738 1634.528738 1634.528738 1634.528738 1634.528738 1634.528738 1634.528738 1634.528738 1634.528738 1634.528738 1634.528738 1634.528738 1634.528738 1634.528738 1634.528738 1634.528738 1634.528738 1634.528738 1634.528738 1634.528738 1634.528738 1634.528738 1634.528738 1634.528738 1634.528738 1634.528738 1634.528738 1634.528738 1634.528738 1634.528738 1634.528738 1634.528738 1634.528738 1634.528738 1634.528738 1634.528738 1634.528738 1634.528738 1634.528738 1634.528738 1634.528738 1634.528738 1634.528738 1634.528738 1634.528738 1634.528738 1634.528738 1634.528738 1634.528738 1634.528738 1634.528738 1634.528738 1634.528738 1634.528738 1634.528738 1634.528738 1634.528738 1634.528738 1634.528738 1634.528738 1634.528738 1634.528738 1634.528738 1634.528738 1634.528738 1634.528738 16