<VTKFile type="PolyData">
<PolyData>
<Piece NumberOfPoints="6456" NumberOfVerts="6456" NumberOfLines="0" NumberOfStrips="0" NumberOfPolys="0">
<PointData>
<DataArray type="Float64" Name="Pressure" format="ascii">
 -0.000000 0.000000 0.000000 0.000000 0.000000 0.000000 -0.000000 0.000000 0.000000 -0.000000 0.000000 0.000000 -0.000000 0.000000 0.000000 -0.000000 0.000000 0.000000 -0.000000 0.000000 0.000000 -0.000000 0.000000 0.000000 -0.000000 0.000000 0.000000 -0.000000 -0.000000 0.000000 -0.000000 -0.000000 -0.000000 -0.000000 -0.000000 -0.000000 -0.000000 -0.000000 -0.000000 -0.000000 -0.000000 -0.000000 -0.000000 0.000000 0.000000 -0.000000 -0.000000 -0.000000 -0.000000 0.000000 0.000000 0.000000 0.000000 0.000000 0.000000 0.000000 0.000000 -0.000000 0.000000 0.000000 -0.000000 -0.000000 0.000000 -0.000000 -0.000000 -0.000000 -0.000000 0.000000 0.000000 -0.000000 -0.000000 -0.000000 -0.000000 0.000000 -0.000000 -0.000000 -0.000000 -0.000000 -0.000000 -0.000000 -0.000000 -0.000000 0.000000 0.000000 -0.000000 -0.000000 -0.000000 -0.000000 -0.000000 -0.000000 -0.000000 0.000000 0.000000 -0.000000 -0.000000 -0.000000 -0.000000 0.000000 -0.000000 -0.000000 -0.000000 -0.000000 -0.000000 -0.000000 -0.000000 -0.000000 0.000000 0.000000 -0.000000 -0.000000 -0.000000 0.000000 0.000000 0.000000 -0.000000 -0.000000 -0.000000 -0.000000 -0.000000 -0.000000 -0.000000 -0.000000 -0.000000 -0.000000 -0.000000 -0.000000 -0.000000 -0.000000 -0.000000 -0.000000 -0.000000 -0.000000 -0.000000 -0.000000 -0.000000 -0.000000 -0.000000 -0.000000 -0.000000 -0.000000 -0.000000 -0.000000 -0.000000 -0.000000 -0.000000 -0.000000 -0.000000 -0.000000 -0.000000 -0.000000 -0.000000 -0.000000 -0.000000 -0.000000 -0.000000 -0.000000 -0.000000 -0.000000 -0.000000 -0.000000 -0.000000 -0.000000 -0.000000 -0.000000 -0.000000 -0.000000 -0.000000 -0.000000 -0.000000 -0.000000 -0.000000 -0.000000 -0.000000 -0.000000 -0.000000 -0.000000 -0.000000 -0.000000 -0.000000 -0.000000 -0.000000 -0.000000 -0.000000 -0.000000 -0.000000 -0.000000 -0.000000 -0.000000 -0.000000 -0.000000 -0.000000 -0.000000 -0.000000 -0.000000 -0.000000 -0.000000 -0.000000 -0.000000 -0.000000 -0.000000 -0.000000 -0.000000 -0.000000 -0.000000 -0.000000 -0.000000 -0.000000 -0.000000 -0.000000 -0.000000 -0.000000 -0.000000 -0.000000 -0.000000 -0.000000 -0.000000 -0.000000 -0.000000 -0.000000 -0.000000 -0.000000 -0.000000 -0.000000 -0.000000 -0.000000 -0.000000 -0.000000 -0.000000 -0.000000 -0.000000 -0.000000 -0.000000 -0.000000 -0.000000 -0.000000 -0.000000 -0.000000 -0.000000 -0.000000 -0.000000 -0.000000 -0.000000 -0.000000 -0.000000 -0.000000 -0.000000 -0.000000 -0.000000 -0.000000 -0.000000 -0.000000 -0.000000 -0.000000 -0.000000 -0.000000 -0.000000 -0.000000 -0.000000 -0.000000 -0.000000 -0.000000 -0.000000 -0.000000 -0.000000 -0.000000 -0.000000 -0.000000 -0.000000 -0.000000 -0.000000 -0.000000 -0.000000 -0.000000 -0.000000 -0.000000 -0.000000 -0.000000 -0.000000 -0.000000 -0.000000 -0.000000 -0.000000 -0.000000 -0.000000 -0.000000 -0.000000 -0.000000 -0.000000 -0.000000 -0.000000 -0.000000 -0.000000 -0.000000 -0.000000 -0.000000 -0.000000 -0.000000 -0.000000 -0.000000 -0.000000 -0.000000 -0.000000 -0.000000 -0.000000 -0.000000 -0.000000 -0.000000 -0.000000 -0.000000 -0.000000 -0.000000 -0.000000 -0.000000 -0.000000 -0.000000 -0.000000 -0.000000 -0.000000 -0.000000 -0.000000 -0.000000 -0.000000 -0.000000 -0.000000 -0.000000 -0.000000 -0.000000 -0.000000 -0.000000 -0.000000 -0.000000 -0.000000 -0.000000 -0.000000 -0.000000 -0.000000 -0.000000 -0.000000 -0.000000 -0.000000 -0.000000 -0.000000 -0.000000 -0.000000 -0.000000 -0.000000 -0.000000 -0.000000 -0.000000 -0.000000 -0.000000 -0.000000 -0.000000 -0.000000 -0.000000 -0.000000 -0.000000 -0.000000 -0.000000 -0.000000 -0.000000 -0.000000 -0.000000 -0.000000 -0.000000 -0.000000 -0.000000 -0.000000 -0.000000 -0.000000 -0.000000 -0.000000 -0.000000 -0.000000 -0.000000 -0.000000 -0.000000 -0.000000 -0.000000 -0.000000 -0.000000 -0.000000 -0.000000 -0.000000 -0.000000 -0.000000 -0.000000 -0.000000 -0.000000 -0.000000 -0.000000 -0.000000 -0.000000 -0.000000 -0.000000 -0.000000 -0.000000 -0.000000 -0.000000 -0.000000 -0.000000 -0.000000 -0.000000 -0.000000 -0.000000 -0.000000 -0.000000 -0.000000 -0.000000 -0.000000 -0.000000 -0.000000 -0.000000 -0.000000 -0.000000 -0.000000 -0.000000 -0.000000 -0.000000 -0.000000 -0.000000 -0.000000 -0.000000 -0.000000 -0.000000 -0.000000 -0.000000 -0.000000 -0.000000 -0.000000 -0.000000 -0.000000 -0.000000 -0.000000 -0.000000 -0.000000 -0.000000 -0.000000 -0.000000 -0.000000 -0.000000 -0.000000 -0.000000 -0.000000 -0.000000 -0.000000 -0.000000 -0.000000 -0.000000 -0.000000 -0.000000 -0.000000 -0.000000 -0.000000 -0.000000 -0.000000 -0.000000 -0.000000 -0.000000 -0.000000 -0.000000 -0.000000 -0.000000 -0.000000 -0.000000 -0.000000 -0.000000 -0.000000 -0.000000 -0.000000 -0.000000 -0.000000 -0.000000 -0.000000 -0.000000 -0.000000 -0.000000 -0.000000 -0.000000 -0.000000 -0.000000 -0.000000 0.000000 -0.000000 0.000000 0.000000 0.000000 0.000000 0.000000 0.000000 0.000000 0.000000 -0.000000 0.000000 0.000000 0.000000 0.000000 0.000000 0.000000 0.000000 0.000000 -0.000000 0.000000 0.000000 0.000000 0.000000 0.000000 0.000000 0.000000 0.000000 0.000000 0.000000 0.000000 0.000000 0.000000 0.000000 -0.000000 0.000000 0.000000 0.000000 0.000000 0.000000 0.000000 0.000000 0.000000 0.000000 0.000000 0.000000 0.000000 0.000000 0.000000 -0.000000 0.000000 0.000000 0.000000 0.000000 0.000000 0.000000 0.000000 0.000000 -0.000000 0.000000 0.000000 0.000000 0.000000 0.000000 0.000000 0.000000 0.000000 0.000000 0.000000 0.000000 0.000000 0.000000 0.000000 -0.000000 0.000000 0.000000 0.000000 0.000000 0.000000 0.000000 0.000000 0.000000 0.000000 0.000000 0.000000 0.000000 0.000000 0.000000 -0.000000 0.000000 0.000000 0.000000 0.000000 0.000000 0.000000 0.000000 0.000000 0.000000 0.000000 0.000000 0.000000 0.000000 0.000000 -0.000000 0.000000 0.000000 0.000000 0.000000 0.000000 0.000000 0.000000 0.000000 0.000000 0.000000 0.000000 0.000000 0.000000 0.000000 0.000000 0.000000 0.000000 0.000000 0.000000 0.000000 4180.144339 1390.377214 401.927400 4794.429257 1722.559404 524.047013 5000.441695 1826.719435 572.166389 5133.549319 1863.668888 585.866044 5203.970523 1878.909994 589.488857 5237.631880 1885.080768 590.524747 5252.019464 1887.392339 590.837376 5257.559876 1888.195768 590.928998 5259.550008 1888.456972 590.954289 5260.220163 1888.536777 590.960878 5260.431081 1888.559802 590.962504 5260.493548 1888.566101 590.962885 5260.511058 1888.567740 590.962970 5260.515710 1888.568146 590.962988 5260.516884 1888.568242 590.962992 5260.517167 1888.568264 590.962992 5260.517232 1888.568269 590.962993 5260.517246 1888.568270 590.962993 5260.517249 1888.568270 590.962993 5260.517249 1888.568270 590.962993 5260.517250 1888.568270 590.962993 5260.517250 1888.568270 590.962993 5260.517250 1888.568270 590.962993 5260.517250 1888.568270 590.962993 5260.517250 1888.568270 590.962993 5260.517250 1888.568270 590.962993 5260.517250 1888.568270 590.962993 5260.517250 1888.568270 590.962993 5260.517250 1888.568270 590.962993 5260.517250 1888.568270 590.962993 5260.517250 1888.568270 590.962993 5260.517250 1888.568270 590.962993 5260.517250 1888.568270 590.962993 5260.517250 1888.568270 590.962993 5260.517250 1888.568270 590.962993 5260.517250 1888.568270 590.962993 5260.517250 1888.568270 590.962993 5260.517250 1888.568270 590.962993 5260.517250 1888.568270 590.962993 5260.517250 1888.568270 590.962993 5260.517250 1888.568270 590.962993 5260.517250 1888.568270 590.962993 5260.517250 1888.568270 590.962993 5260.517250 1888.568270 590.962993 5260.517250 1888.568270 590.962993 5260.517250 1888.568270 590.962993 5260.517250 1888.568270 590.962993 5260.517250 1888.568270 590.962993 5260.517250 1888.568270 590.962993 5260.517250 1888.568270 590.962993 5260.517250 1888.568270 590.962993 5260.517250 1888.568270 590.962993 5260.517250 1888.568270 590.962993 5260.517250 1888.568270 590.962993 5260.517250 1888.568270 590.962993 5260.517250 1888.568270 590.962993 5260.517250 1888.568270 590.962993 5260.517250 1888.568270 590.962993 5260.517250 1888.568270 590.962993 5260.517250 1888.568270 590.962993 5260.517250 1888.568270 590.962993 5260.517250 1888.568270 590.962993 5260.517250 1888.568270 590.962993 5260.517250 1888.568270 590.962993 5260.517250 1888.568270 590.962993 5260.517250 1888.568270 590.962993 5260.517250 1888.568270 590.962993 5260.517250 1888.568270 590.962993 5260.517250 1888.568270 590.962993 5260.517250 1888.568270 590.962993 5260.517250 1888.568270 590.962993 5260.517250 1888.568270 590.962993 5260.517250 1888.568270 590.962993 5260.517250 1888.568270 590.962993 5260.517250 1888.568270 590.962993 5260.517250 1888.568270 590.962993 5260.517250 1888.568270 590.962993 5260.517250 1888.568270 590.962993 5260.517250 1888.568270 590.962993 5260.517250 1888.568270 590.962993 5260.517250 1888.568270 590.962993 5260.517250 1888.568270 590.962993 5260.517250 1888.568270 590.962993 5260.517250 1888.568270 590.962993 5260.517250 1888.568270 590.962993 5260.517250 1888.568270 590.962993 5260.517250 1888.568270 590.962993 5260.517250 1888.568270 590.962993 5260.517250 1888.568270 590.962993 5260.517250 1888.568270 590.962993 5260.517250 1888.568270 590.962993 5260.517250 1888.568270 590.962993 5260.517250 1888.568270 590.962993 5260.517250 1888.568270 590.962993 5260.517250 1888.568270 590.962993 5260.517250 1888.568270 590.962993 5260.517250 1888.568270 590.962993 5260.517250 1888.568270 590.962993 5260.517250 1888.568270 590.962993 5260.517250 1888.568270 590.962993 5260.517250 1888.568270 590.962993 5260.517250 1888.568270 590.962993 5260.517250 1888.568270 590.962993 5260.517250 1888.568270 590.962993 5260.517250 1888.568270 590.962993 5260.517250 1888.568270 590.962993 5260.517250 1888.568270 590.962993 5260.517250 1888.568270 590.962993 5260.517250 1888.568270 590.962993 5260.517250 1888.568270 590.962993 5260.517250 1888.568270 590.962993 5260.517250 1888.568270 590.962993 5260.517250 1888.568270 590.962993 5260.517250 1888.568270 590.962993 5260.517250 1888.568270 590.962993 5260.517250 1888.568270 590.962993 5260.517250 1888.568270 590.962993 5260.517250 1888.568270 590.962993 5260.517250 1888.568270 590.962993 5260.517250 1888.568270 590.962993 5260.517250 1888.568270 590.962993 5260.517250 1888.568270 590.962993 5260.517250 1888.568270 590.962993 5260.517250 1888.568270 590.962993 5260.517250 1888.568270 590.962993 5260.517250 1888.568270 590.962993 5260.517250 1888.568270 590.962993 5260.517250 1888.568270 590.962993 5260.517250 1888.568270 590.962993 5260.517250 1888.568270 590.962993 5260.517250 1888.568270 590.962993 5260.517250 1888.568270 590.962993 5260.517250 1888.568270 590.962993 5260.517250 1888.568270 590.962993 5260.517250 1888.568270 590.962993 5260.517250 1888.568270 590.962993 5260.517250 1888.568270 590.962993 5260.517250 1888.568270 590.962993 5260.517250 1888.568270 590.962993 5260.517250 1888.568270 590.962993 5260.517250 1888.568270 590.962993 5260.517250 1888.568270 590.962993 5260.517250 1888.568270 590.962993 5260.517250 1888.568270 590.962993 5260.517250 1888.568270 590.962993 5260.517250 1888.568270 590.962993 5260.517250 1888.568270 590.962993 5260.517250 1888.568270 590.962993 5260.517250 1888.568270 590.962993 5260.517250 1888.568270 590.962993 5260.517250 1888.568270 590.962993 5260.517250 1888.568270 590.962993 5260.517250 1888.568270 590.962993 5260.517250 1888.568270 590.962993 5260.517250 1888.568270 590.962993 5260.517250 1888.568270 590.962993 5260.517250 1888.568270 590.962993 5260.517250 1888.568270 590.962993 5260.517250 1888.568270 590.962993 5260.517250 1888.568270 590.962993 5260.517250 1888.568270 590.962993 5260.517250 1888.568270 590.962993 5260.517250 1888.568270 590.962993 5260.517250 1888.568270 590.962993 5260.517250 1888.568270 590.962993 5260.517250 1888.568270 590.962993 5260.517250 1888.568270 590.962993 5260.517250 1888.568270 590.962993 5260.517250 1888.568270 590.962993 5260.517250 1888.568270 590.962993 5260.517250 1888.568270 590.962993 5260.517250 1888.568270 590.962993 5260.517250 1888.568270 590.962993 5260.517250 1888.568270 590.962993 5260.517250 1888.568270 590.962993 5260.517250 1888.568270 590.962993 5260.517250 1888.568270 590.962993 5260.517250 1888.568270 590.962993 5260.517250 1888.568270 590.962993 5260.517249 1888.568270 590.962993 5260.517246 1888.568270 590.962993 5260.517233 1888.568269 590.962993 5260.517172 1888.568264 590.962993 5260.516898 1888.568244 590.962992 5260.515727 1888.568152 590.962989 5260.510929 1888.567750 590.962972 5260.492199 1888.566077 590.962893 5260.422892 1888.559423 590.962526 5260.179522 1888.534222 590.960903 5259.366600 1888.443351 590.954072 5256.829160 1888.132482 590.926873 5249.463530 1887.130098 590.823974 5228.833996 1884.095618 590.452774 5176.348448 1875.485919 589.121519 5065.342408 1851.935389 584.022597 4788.793711 1785.575682 565.229811 4130.830691 1616.631189 510.853626 3852.280538 1308.081605 393.406601 2324.794528 708.730155 219.928931 469.036186 209.604579 79.040460 76.214678 41.697918 18.495721 13.073872 7.866317 3.964118 2551.136308 1620.091835 1030.998977 546.787729 272.355774 129.992635 60.259167 29.944739 17.837641 13.301006 11.657819 10.912415 10.106896 8.496230 5.249604 1.149264 4.418508 -99.305415 -786.631260 72.555067 766.818913 94.587476 21.078179 20.860201 16.440693 13.432291 11.986925 11.393041 11.174819 11.099516 11.075108 11.067713 11.065600 11.065026 11.064867 11.064779 11.064555 11.063706 11.060560 11.049467 11.012570 10.897560 10.559715 9.627572 7.310186 2.214728 -6.121330 -6.139766 -99.952577 -978.679668 -1122.604303 -297.727275 -55.996158 -8.688363 -1.008796 -0.085737 -0.005115 -0.000204 -0.000005 -0.000000 -0.000000 -0.000000 -0.000000 -0.000000 -0.000000 -0.000000 -0.000000 -0.000000 -0.000000 -0.000000 -0.000000 -0.000000 -0.000000 -0.000000 -0.000000 -0.000000 -0.000000 -0.000000 -0.000000 -0.000000 -0.000000 -0.000000 -0.000000 -0.000000 -0.000000 -0.000000 -0.000000 -0.000000 -0.000000 -0.000000 -0.000000 -0.000000 -0.000000 -0.000000 -0.000000 -0.000000 -0.000000 -0.000000 -0.000000 -0.000000 -0.000000 0.000000 611.322132 414.724461 228.900336 111.126207 49.688728 21.198646 9.083421 4.345044 2.628738 2.046224 1.852149 1.763053 1.644772 1.362023 0.693274 -1.068730 -10.597120 -55.891994 -138.626796 8.300225 135.578765 57.568511 13.951797 4.693303 2.848358 2.195863 1.933796 1.837804 1.805816 1.795891 1.792989 1.792186 1.791975 1.791922 1.791908 1.791901 1.791883 1.791808 1.791510 1.790365 1.786202 1.771839 1.725104 1.582826 1.185561 0.192868 -2.324158 -13.744707 -71.521142 -232.559269 -264.121684 -115.918217 -29.408190 -5.003110 -0.608730 -0.051966 -0.003040 -0.000115 -0.000003 -0.000000 -0.000000 -0.000000 -0.000000 -0.000000 -0.000000 -0.000000 -0.000000 -0.000000 -0.000000 -0.000000 -0.000000 -0.000000 -0.000000 -0.000000 -0.000000 -0.000000 -0.000000 -0.000000 -0.000000 -0.000000 -0.000000 -0.000000 -0.000000 -0.000000 -0.000000 -0.000000 -0.000000 -0.000000 -0.000000 -0.000000 -0.000000 -0.000000 -0.000000 -0.000000 -0.000000 -0.000000 -0.000000 -0.000000 -0.000000 -0.000000 -0.000000 0.000000 128.346257 88.903317 45.242738 19.385590 7.500128 2.803034 1.111062 0.545941 0.370758 0.319756 0.304884 0.297436 0.283163 0.237888 0.042812 -1.096178 -6.584369 -21.595675 -30.658846 0.806962 30.984100 21.648953 7.062025 1.687384 0.557754 0.363247 0.319401 0.306603 0.302910 0.301927 0.301682 0.301624 0.301611 0.301608 0.301608 0.301607 0.301607 0.301603 0.301585 0.301508 0.301176 0.299838 0.294758 0.276910 0.216503 -0.029390 -1.383587 -8.239996 -31.033249 -65.831169 -69.856145 -37.733267 -11.730202 -2.323115 -0.304569 -0.026863 -0.001560 -0.000057 -0.000001 -0.000000 0.000000 0.000000 0.000000 0.000000 0.000000 0.000000 0.000000 0.000000 0.000000 0.000000 0.000000 0.000000 0.000000 0.000000 0.000000 0.000000 0.000000 0.000000 0.000000 0.000000 0.000000 0.000000 0.000000 0.000000 0.000000 0.000000 0.000000 0.000000 0.000000 0.000000 0.000000 0.000000 0.000000 0.000000 0.000000 0.000000 0.000000 0.000000 0.000000 0.000000 0.000000 0.000000 552.536477 338.513884 174.229089 80.726567 35.465547 14.807895 6.027710 2.558126 1.269994 0.821817 0.675752 0.630791 0.617288 0.610829 0.583188 0.344406 -1.370257 -10.470134 -66.627280 -61.988112 -10.950420 -1.999924 -0.267935 -0.026547 -0.001817 -0.000082 -0.000002 -0.000000 0.000000 0.000000 0.000000 0.000000 0.000000 0.000000 0.000000 0.000000 0.000000 -0.000000 -0.000000 -0.000000 -0.000000 -0.000000 -0.000000 -0.000000 -0.000000 -0.000000 -0.000000 -0.000000 -0.000000 -0.000000 -0.000000 -0.000000 -0.000000 -0.000000 -0.000000 -0.000000 -0.000000 -0.000000 -0.000000 -0.000000 -0.000000 -0.000000 -0.000000 -0.000000 -0.000000 -0.000000 -0.000000 -0.000000 -0.000000 -0.000000 -0.000000 -0.000000 -0.000000 -0.000000 -0.000000 -0.000000 -0.000000 -0.000000 -0.000000 -0.000000 -0.000000 -0.000000 -0.000000 -0.000000 -0.000000 -0.000000 -0.000000 -0.000000 -0.000000 -0.000000 -0.000000 -0.000000 -0.000000 -0.000000 -0.000000 -0.000000 -0.000000 -0.000000 0.000000 73.726909 47.855974 23.266119 9.644841 3.633316 1.307656 0.473468 0.194839 0.108150 0.082795 0.075809 0.073991 0.073476 0.072275 0.057497 -0.082971 -0.991620 -5.141798 -11.885554 -11.736086 -5.075541 -1.058635 -0.157174 -0.015912 -0.001084 -0.000047 -0.000001 -0.000000 0.000000 0.000000 0.000000 0.000000 0.000000 0.000000 0.000000 0.000000 0.000000 -0.000000 -0.000000 -0.000000 -0.000000 -0.000000 -0.000000 -0.000000 -0.000000 -0.000000 -0.000000 -0.000000 -0.000000 -0.000000 -0.000000 -0.000000 -0.000000 -0.000000 -0.000000 -0.000000 -0.000000 -0.000000 -0.000000 -0.000000 -0.000000 -0.000000 -0.000000 -0.000000 -0.000000 -0.000000 -0.000000 -0.000000 -0.000000 -0.000000 -0.000000 -0.000000 -0.000000 -0.000000 -0.000000 -0.000000 -0.000000 -0.000000 -0.000000 -0.000000 -0.000000 -0.000000 -0.000000 -0.000000 -0.000000 -0.000000 -0.000000 -0.000000 -0.000000 -0.000000 -0.000000 -0.000000 -0.000000 -0.000000 -0.000000 -0.000000 -0.000000 0.000000 0.000000 13.271753 8.537809 4.022269 1.541072 0.522844 0.168249 0.056610 0.023806 0.014734 0.012365 0.011778 0.011639 0.011583 0.011048 0.003671 -0.061510 -0.422599 -1.506682 -2.987394 -2.966460 -1.499779 -0.430764 -0.073083 -0.007957 -0.000549 -0.000023 -0.000001 -0.000000 0.000000 0.000000 0.000000 0.000000 0.000000 0.000000 0.000000 0.000000 0.000000 -0.000000 -0.000000 -0.000000 -0.000000 -0.000000 -0.000000 -0.000000 -0.000000 -0.000000 -0.000000 -0.000000 -0.000000 -0.000000 -0.000000 -0.000000 -0.000000 -0.000000 -0.000000 -0.000000 -0.000000 -0.000000 -0.000000 -0.000000 -0.000000 -0.000000 -0.000000 -0.000000 -0.000000 -0.000000 -0.000000 -0.000000 -0.000000 -0.000000 -0.000000 -0.000000 -0.000000 -0.000000 -0.000000 -0.000000 -0.000000 -0.000000 -0.000000 -0.000000 -0.000000 -0.000000 -0.000000 -0.000000 -0.000000 -0.000000 -0.000000 -0.000000 -0.000000 -0.000000 -0.000000 -0.000000 -0.000000 -0.000000 -0.000000 0.000000 0.000000 0.000000 0.000000 2128.494049 699.856272 219.737502 492.712660 209.241564 79.982437 113.173650 59.044491 26.120882 4242.210788 4231.170225 4528.227427 4778.472277 4896.398120 4955.171364 4982.219146 4993.141298 4997.236278 4998.674470 4999.143385 4999.286527 4999.327788 4999.339032 4999.341935 4999.342647 4999.342814 4999.342851 4999.342859 4999.342861 4999.342861 4999.342861 4999.342861 4999.342861 4999.342861 4999.342861 4999.342861 4999.342861 4999.342861 4999.342861 4999.342861 4999.342861 4999.342861 4999.342861 4999.342861 4999.342861 4999.342861 4999.342861 4999.342861 4999.342861 4999.342861 4999.342861 4999.342861 4999.342861 4999.342861 4999.342861 4999.342861 4999.342861 4999.342861 4999.342861 4999.342861 4999.342861 4999.342861 4999.342861 4999.342861 4999.342861 4999.342861 4999.342861 4999.342861 4999.342861 4999.342861 4999.342861 4999.342861 4999.342861 4999.342861 4999.342861 4999.342861 4999.342861 4999.342861 4999.342861 4999.342861 4999.342861 4999.342861 4999.342861 4999.342861 4999.342861 4999.342861 4999.342861 4999.342861 4999.342861 4999.342861 4999.342861 4999.342861 4999.342861 4999.342861 4999.342861 4999.342861 4999.342861 4999.342861 4999.342861 4999.342861 4999.342861 4999.342861 4999.342861 4999.342861 4999.342861 4999.342861 4999.342861 4999.342861 4999.342861 4999.342861 4999.342861 4999.342861 4999.342861 4999.342861 4999.342861 4999.342861 4999.342861 4999.342861 4999.342861 4999.342861 4999.342861 4999.342861 4999.342861 4999.342861 4999.342861 4999.342861 4999.342861 4999.342861 4999.342861 4999.342861 4999.342861 4999.342861 4999.342861 4999.342861 4999.342861 4999.342861 4999.342861 4999.342861 4999.342861 4999.342861 4999.342861 4999.342861 4999.342861 4999.342861 4999.342861 4999.342861 4999.342861 4999.342861 4999.342861 4999.342861 4999.342861 4999.342861 4999.342861 4999.342861 4999.342861 4999.342861 4999.342861 4999.342861 4999.342861 4999.342861 4999.342861 4999.342861 4999.342861 4999.342861 4999.342861 4999.342861 4999.342861 4999.342861 4999.342861 4999.342861 4999.342861 4999.342861 4999.342861 4999.342861 4999.342861 4999.342861 4999.342861 4999.342861 4999.342861 4999.342861 4999.342861 4999.342861 4999.342861 4999.342861 4999.342861 4999.342861 4999.342861 4999.342861 4999.342859 4999.342852 4999.342818 4999.342659 4999.341962 4999.339032 4999.327282 4999.282467 4999.121060 4998.570005 4996.781530 4991.420183 4976.575168 4935.935458 4837.174559 4653.196954 4174.049457 3140.288465 3026.035806 2247.961812 2012.927135 2353.730387 2562.184352 2655.629305 2708.897636 2735.002077 2745.895228 2750.142713 2751.688341 2752.206545 2752.368731 2752.416575 2752.429881 2752.433379 2752.434252 2752.434460 2752.434507 2752.434517 2752.434519 2752.434519 2752.434519 2752.434519 2752.434519 2752.434519 2752.434519 2752.434519 2752.434519 2752.434519 2752.434519 2752.434519 2752.434519 2752.434519 2752.434519 2752.434519 2752.434519 2752.434519 2752.434519 2752.434519 2752.434519 2752.434519 2752.434519 2752.434519 2752.434519 2752.434519 2752.434519 2752.434519 2752.434519 2752.434519 2752.434519 2752.434519 2752.434519 2752.434519 2752.434519 2752.434519 2752.434519 2752.434519 2752.434519 2752.434519 2752.434519 2752.434519 2752.434519 2752.434519 2752.434519 2752.434519 2752.434519 2752.434519 2752.434519 2752.434519 2752.434519 2752.434519 2752.434519 2752.434519 2752.434519 2752.434519 2752.434519 2752.434519 2752.434519 2752.434519 2752.434519 2752.434519 2752.434519 2752.434519 2752.434519 2752.434519 2752.434519 2752.434519 2752.434519 2752.434519 2752.434519 2752.434519 2752.434519 2752.434519 2752.434519 2752.434519 2752.434519 2752.434519 2752.434519 2752.434519 2752.434519 2752.434519 2752.434519 2752.434519 2752.434519 2752.434519 2752.434519 2752.434519 2752.434519 2752.434519 2752.434519 2752.434519 2752.434519 2752.434519 2752.434519 2752.434519 2752.434519 2752.434519 2752.434519 2752.434519 2752.434519 2752.434519 2752.434519 2752.434519 2752.434519 2752.434519 2752.434519 2752.434519 2752.434519 2752.434519 2752.434519 2752.434519 2752.434519 2752.434519 2752.434519 2752.434519 2752.434519 2752.434519 2752.434519 2752.434519 2752.434519 2752.434519 2752.434519 2752.434519 2752.434519 2752.434519 2752.434519 2752.434519 2752.434519 2752.434519 2752.434519 2752.434519 2752.434519 2752.434519 2752.434519 2752.434519 2752.434519 2752.434519 2752.434519 2752.434519 2752.434519 2752.434519 2752.434519 2752.434519 2752.434519 2752.434519 2752.434519 2752.434519 2752.434519 2752.434519 2752.434519 2752.434519 2752.434519 2752.434519 2752.434519 2752.434519 2752.434519 2752.434519 2752.434519 2752.434519 2752.434517 2752.434508 2752.434464 2752.434267 2752.433409 2752.429865 2752.415905 2752.363672 2752.179737 2751.567741 2749.631386 2744.001306 2729.121473 2689.929992 2596.865484 2444.056901 2084.135568 1203.611033 1338.063420 1737.687631 1875.346867 2141.934136 2280.767826 2356.918771 2403.074623 2425.378649 2434.845278 2438.645752 2440.056289 2440.537176 2440.690402 2440.736357 2440.749324 2440.752779 2440.753652 2440.753862 2440.753910 2440.753921 2440.753923 2440.753923 2440.753923 2440.753923 2440.753923 2440.753923 2440.753923 2440.753923 2440.753923 2440.753923 2440.753923 2440.753923 2440.753923 2440.753923 2440.753923 2440.753923 2440.753923 2440.753923 2440.753923 2440.753923 2440.753923 2440.753923 2440.753923 2440.753923 2440.753923 2440.753923 2440.753923 2440.753923 2440.753923 2440.753923 2440.753923 2440.753923 2440.753923 2440.753923 2440.753923 2440.753923 2440.753923 2440.753923 2440.753923 2440.753923 2440.753923 2440.753923 2440.753923 2440.753923 2440.753923 2440.753923 2440.753923 2440.753923 2440.753923 2440.753923 2440.753923 2440.753923 2440.753923 2440.753923 2440.753923 2440.753923 2440.753923 2440.753923 2440.753923 2440.753923 2440.753923 2440.753923 2440.753923 2440.753923 2440.753923 2440.753923 2440.753923 2440.753923 2440.753923 2440.753923 2440.753923 2440.753923 2440.753923 2440.753923 2440.753923 2440.753923 2440.753923 2440.753923 2440.753923 2440.753923 2440.753923 2440.753923 2440.753923 2440.753923 2440.753923 2440.753923 2440.753923 2440.753923 2440.753923 2440.753923 2440.753923 2440.753923 2440.753923 2440.753923 2440.753923 2440.753923 2440.753923 2440.753923 2440.753923 2440.753923 2440.753923 2440.753923 2440.753923 2440.753923 2440.753923 2440.753923 2440.753923 2440.753923 2440.753923 2440.753923 2440.753923 2440.753923 2440.753923 2440.753923 2440.753923 2440.753923 2440.753923 2440.753923 2440.753923 2440.753923 2440.753923 2440.753923 2440.753923 2440.753923 2440.753923 2440.753923 2440.753923 2440.753923 2440.753923 2440.753923 2440.753923 2440.753923 2440.753923 2440.753923 2440.753923 2440.753923 2440.753923 2440.753923 2440.753923 2440.753923 2440.753923 2440.753923 2440.753923 2440.753923 2440.753923 2440.753923 2440.753923 2440.753923 2440.753923 2440.753923 2440.753923 2440.753923 2440.753923 2440.753923 2440.753923 2440.753923 2440.753923 2440.753923 2440.753923 2440.753923 2440.753921 2440.753911 2440.753867 2440.753667 2440.752811 2440.749318 2440.735754 2440.685747 2440.512406 2439.947234 2438.196172 2433.178925 2420.262596 2387.850182 2310.752432 2179.459186 1931.751630 1307.844214 1094.492205 998.147217 1095.796418 1236.567363 1326.755300 1384.024629 1417.067180 1432.839276 1439.779137 1442.645187 1443.725463 1444.100206 1444.221924 1444.259039 1444.269666 1444.272537 1444.273273 1444.273452 1444.273494 1444.273503 1444.273505 1444.273505 1444.273505 1444.273505 1444.273505 1444.273505 1444.273505 1444.273505 1444.273505 1444.273505 1444.273505 1444.273505 1444.273505 1444.273505 1444.273505 1444.273505 1444.273505 1444.273505 1444.273505 1444.273505 1444.273505 1444.273505 1444.273505 1444.273505 1444.273505 1444.273505 1444.273505 1444.273505 1444.273505 1444.273505 1444.273505 1444.273505 1444.273505 1444.273505 1444.273505 1444.273505 1444.273505 1444.273505 1444.273505 1444.273505 1444.273505 1444.273505 1444.273505 1444.273505 1444.273505 1444.273505 1444.273505 1444.273505 1444.273505 1444.273505 1444.273505 1444.273505 1444.273505 1444.273505 1444.273505 1444.273505 1444.273505 1444.273505 1444.273505 1444.273505 1444.273505 1444.273505 1444.273505 1444.273505 1444.273505 1444.273505 1444.273505 1444.273505 1444.273505 1444.273505 1444.273505 1444.273505 1444.273505 1444.273505 1444.273505 1444.273505 1444.273505 1444.273505 1444.273505 1444.273505 1444.273505 1444.273505 1444.273505 1444.273505 1444.273505 1444.273505 1444.273505 1444.273505 1444.273505 1444.273505 1444.273505 1444.273505 1444.273505 1444.273505 1444.273505 1444.273505 1444.273505 1444.273505 1444.273505 1444.273505 1444.273505 1444.273505 1444.273505 1444.273505 1444.273505 1444.273505 1444.273505 1444.273505 1444.273505 1444.273505 1444.273505 1444.273505 1444.273505 1444.273505 1444.273505 1444.273505 1444.273505 1444.273505 1444.273505 1444.273505 1444.273505 1444.273505 1444.273505 1444.273505 1444.273505 1444.273505 1444.273505 1444.273505 1444.273505 1444.273505 1444.273505 1444.273505 1444.273505 1444.273505 1444.273505 1444.273505 1444.273505 1444.273505 1444.273505 1444.273505 1444.273505 1444.273505 1444.273505 1444.273505 1444.273505 1444.273505 1444.273505 1444.273505 1444.273505 1444.273505 1444.273505 1444.273505 1444.273505 1444.273505 1444.273505 1444.273505 1444.273505 1444.273505 1444.273505 1444.273505 1444.273503 1444.273495 1444.273456 1444.273287 1444.272569 1444.269678 1444.258626 1444.218518 1444.081635 1443.644318 1442.322409 1438.591110 1429.137380 1406.684079 1354.747781 1258.918358 1094.307231 757.911553 606.120228 518.469385 582.838923 668.301898 727.557686 763.869580 783.906482 793.737354 798.238551 800.130383 800.853475 801.109450 801.194277 801.220578 801.228226 801.230326 801.230871 801.231006 801.231037 801.231044 801.231046 801.231046 801.231046 801.231046 801.231046 801.231046 801.231046 801.231046 801.231046 801.231046 801.231046 801.231046 801.231046 801.231046 801.231046 801.231046 801.231046 801.231046 801.231046 801.231046 801.231046 801.231046 801.231046 801.231046 801.231046 801.231046 801.231046 801.231046 801.231046 801.231046 801.231046 801.231046 801.231046 801.231046 801.231046 801.231046 801.231046 801.231046 801.231046 801.231046 801.231046 801.231046 801.231046 801.231046 801.231046 801.231046 801.231046 801.231046 801.231046 801.231046 801.231046 801.231046 801.231046 801.231046 801.231046 801.231046 801.231046 801.231046 801.231046 801.231046 801.231046 801.231046 801.231046 801.231046 801.231046 801.231046 801.231046 801.231046 801.231046 801.231046 801.231046 801.231046 801.231046 801.231046 801.231046 801.231046 801.231046 801.231046 801.231046 801.231046 801.231046 801.231046 801.231046 801.231046 801.231046 801.231046 801.231046 801.231046 801.231046 801.231046 801.231046 801.231046 801.231046 801.231046 801.231046 801.231046 801.231046 801.231046 801.231046 801.231046 801.231046 801.231046 801.23